83
Lattice="12.049483852 0.014100787 -2.826267705 -3.571931226 11.145541253 -3.653909468 0.023363077 0.084157872 12.436688049" Properties=species:S:1:pos:R:3:forces:R:3 energy=-357.48773017 pbc="T T T"
Li       0.56060000       4.19632000      10.04696000      -0.19649900      -0.06505300      -0.06434100
Li       3.62758000       4.31743000      -0.76013000      -0.15137100       0.12444500      -0.24860700
Li       7.00367000       7.83333000      -2.80263000      -0.38185200       0.12313900      -0.45037900
Li       1.35314000      10.84318000      -1.41480000      -0.00325100      -0.73977200       0.05591400
Li       3.25020000       0.31686000      11.57853000      -0.15033100      -0.35154000       0.02483300
Li       1.58480000       0.13149000       4.40711000      -0.23522300      -0.33187500      -0.41570200
Li       3.67597000       7.51578000      -0.25929000      -0.04547700       0.25570700      -0.56251800
Li      -0.04083000       8.10778000       8.13724000       0.77614000      -0.91444200       0.08778800
Li       9.56860000       0.33483000       2.68695000      -0.13035900      -0.14362800       0.17066700
Li       8.51884000       3.31696000      -2.79421000      -0.15462900       0.05578400       0.55547400
Li       6.87065000       1.38563000       0.11610000       0.15906200       0.14343000      -0.20926700
Li      -1.34415000       8.08187000       0.38706000       0.17716100      -0.00019300      -0.01095100
Li       6.19339000       7.11831000       1.95085000      -0.19127900       0.30146800       0.06838100
Li       3.27634000       3.31267000       4.59817000       0.08438700      -0.24825600      -0.19564600
Li      10.86603000       3.70598000      -0.39518000      -0.06502300      -0.06318800       0.12785100
Li       3.58724000       7.92851000       4.63490000       0.11716300      -0.64992200      -0.19649900
Li       8.90563000       7.62353000       3.72706000       0.47420700       0.51476200      -0.18477100
Li       4.34067000       6.57676000       7.31345000      -0.01302800       0.15027700       0.02244700
Li       9.23880000       3.42379000       5.60861000       0.40995000      -0.29204900      -0.15409100
Li       7.23422000       0.97856000       6.56370000       0.11584500      -0.24749200       0.34786600
Li       1.83068000       9.45771000       5.84729000       0.21635600       0.68445600       0.02528600
Li       1.06633000       1.87233000       0.79884000      -0.07108600      -0.29525200       0.02437500
Li       6.46696000      10.38141000       6.47226000      -0.16621500       0.16685800       0.03095800
Li       2.00668000       1.81013000       8.64230000      -0.24672800       0.24020000      -0.74990100
Li       8.56593000      10.77791000       3.45245000      -0.13464200      -0.32366000      -0.08233300
Li      -1.05840000       7.74172000       3.33277000       0.24478000       0.06380400       0.85790400
Li       5.90184000       3.65703000       7.83118000      -0.20816200      -0.15367700      -0.06118800
P       -1.95009000       9.31093000      -2.58590000       0.78698200      -0.56342200      -0.61236200
P        3.82171000       9.23203000      -3.86144000       1.71116700       1.51564000      -1.44300200
P        1.17272000       5.54522000       1.18249000      -0.67357300      -0.24512600       1.89218400
P        7.06934000       5.34366000      -0.37237000       0.93720100      -1.55118000       1.77049100
P        2.09034000       8.97461000       1.87311000      -0.51715400       1.05335900       0.37288800
P        8.08695000       8.70805000       0.35203000      -0.70325300       0.55453200       1.13787200
P        0.03458000       2.42577000       5.77716000      -0.72178200      -0.09393400       0.76386200
P        6.07486000       2.56728000       4.30023000       1.02822600       0.26770800       1.10019600
P        1.29785000       5.77407000       6.03266000      -0.09852000       1.14144200       1.09628100
P        7.10876000       5.99827000       5.07265000       0.40994300      -1.00917600       0.96204000
P        4.70872000       1.98447000       9.89396000       0.69585300      -0.81855200      -0.57617400
P       10.84893000       1.95390000       8.46751000      -1.24272100      -2.02295200      -0.58573000
S        1.89699000       9.73058000      -3.67742000      -0.54825200       0.27653700       0.01277200
S        8.26414000       9.23823000      -4.73256000      -1.14034500       0.10640700       0.05130200
S       -0.87223000       7.69939000      -1.93425000      -0.05644400       0.47501400      -0.27191300
S        4.43869000       7.63101000      -2.94122000       0.10722400      -2.05699100       1.28801000
S        4.45981000       2.14678000      -0.55188000       0.43615900      -0.29942500       1.05188400
S       10.46525000       1.66270000      -1.99718000       0.50583200       0.54738600       0.74503100
S        1.45490000       5.74298000      -0.73517000       0.55704400      -0.11047100      -1.52802800
S        7.26187000       5.50265000      -2.29711000       0.27012600       0.05301800      -1.26220500
S       -1.04659000      11.07417000      -2.01161000      -0.02500300       0.68003300       0.61441400
S        5.23794000      10.68962000      -3.31444000      -1.08765600       0.37665700      -0.05933900
S       -0.74464000       6.17879000       1.74120000       0.57039600      -1.59500500      -0.59746600
S        5.19697000       5.79159000       0.35984000       0.13832800      -0.80900300      -0.15252100
S        1.70527000       3.77236000       2.10154000      -0.15797100       0.67711300      -0.69063000
S        8.20070000       3.64456000       0.37116000      -1.10659400       0.79306000      -0.58716400
S        2.95865000       9.76297000       0.25217000      -0.43103200      -0.35958400      -0.76558100
S        8.56112000       9.05095000      -1.55842000       0.78917400       0.17249400      -0.52659400
S        5.02069000       1.91998000       2.80746000      -0.93010200       0.35127200      -1.38315200
S       11.20153000       1.54122000       1.35902000      -0.01497700       0.40498900      -0.17985100
S        2.67984000       6.84765000       2.04624000      -0.24843300       0.48890000       0.42749100
S        8.26899000       6.59117000       0.90559000       0.40534400       0.48875600      -0.52949200
S        0.09301000       9.36250000       2.17187000       0.66924700       0.25902600      -0.78603500
S        6.23156000       9.47931000       0.68285000       0.46040800      -0.74126100       0.14758500
S        1.93595000       1.84061000       5.91064000       1.07108900       0.00967900       0.39726800
S        7.94643000       1.78803000       4.47669000       0.41240600       0.45008400      -0.53524000
S        0.09605000       4.54532000       4.97426000      -1.55781100      -1.49437000      -0.32423300
S        5.96507000       4.80012000       3.82847000      -0.44415500      -1.53214800      -0.28759700
S       -2.53832000       9.21718000       4.59044000      -0.29123400       0.02522000      -0.30991100
S        3.13484000       9.85298000       3.40231000      -0.17446200      -0.86805800       0.41963800
S       11.24194000       1.90136000       4.78202000       0.35078900       0.79155600      -1.08001300
S        5.16614000       2.06606000       6.03506000      -0.28606000       0.69504500       0.25972200
S        0.39954000       7.60786000       5.50331000       0.61609900      -0.68542000      -0.01359500
S        6.55343000       7.69661000       4.17275000      -0.26617800       1.11222200       0.18516600
S        3.23019000       5.49534000       5.41465000      -0.19773400       0.59135100       0.25179600
S        9.05419000       5.55193000       4.73639000       0.01932200       0.38702000       0.09751900
S        3.76095000       0.34111000       9.05168000       0.39391600      -0.17414100       0.65530300
S        9.87366000       0.17333000       7.75341000       0.51713800       1.15859400      -0.11056800
S        0.93711000       5.57989000       8.00906000       0.28396400       0.25656000       0.13046600
S        6.60443000       5.83827000       7.06113000       0.29885700       0.00322900      -0.40695200
S       -1.68162000       9.54082000       7.71769000      -1.09020500      -0.24220500       0.53656000
S        4.40424000       9.01774000       6.50677000      -0.70472300       0.20661700       0.99764100
S        3.72938000       3.56821000       9.15469000      -0.21625900       1.17374500      -0.64226600
S       10.11241000       3.70917000       7.84711000      -0.11228300       0.72305600      -0.33890100
S        0.76476000       1.74306000      10.73303000       0.66973400       0.66324300       0.65737500
S        6.73426000       1.70853000       9.49038000      -0.31730600       0.33080400      -0.26381100
83
Lattice="12.049483852 0.014100787 -2.826267705 -3.571931226 11.145541253 -3.653909468 0.023363077 0.084157872 12.436688049" Properties=species:S:1:pos:R:3:forces:R:3 energy=-357.34928721 pbc="T T T"
Li      -1.88463000       6.04219000      -0.30093000      -0.28966100       0.25924800      -0.27285200
Li       2.37243000       3.41511000      -0.83024000       0.02128400      -0.20616800       0.18037500
Li       7.14977000       8.82146000      -2.27462000      -0.07738300      -0.20187700      -0.30401200
Li       0.47958000       9.61264000      -0.67733000      -0.21472900       0.09388400       0.00734000
Li       3.83383000       0.11864000      -0.35590000      -0.25125700      -0.24170200      -0.12405600
Li       0.60566000       0.24927000       3.23305000      -0.12944000       0.02011500       0.28788200
Li       3.69582000       6.98073000      -0.88515000       0.31722800      -0.56431400      -0.38591800
Li       0.14214000       7.89950000       8.25123000      -0.06655600      -0.17219000      -0.02065800
Li       3.59406000      11.15971000      -0.89337000      -0.32068800       0.41617400       0.25597600
Li       8.57616000       3.55633000      -2.21956000      -0.56810200       0.01337700       0.50047100
Li       6.65612000       1.94404000      -0.06419000       0.21502700      -0.10126400      -0.05889100
Li      -0.58143000       7.92310000       3.12574000       0.01593100       0.17628100      -0.20586400
Li       5.47377000       7.35658000       1.88870000       0.19889400       0.47445400       0.25831200
Li       2.72424000       3.55731000       3.96173000       0.46701300       0.23701600       0.24750200
Li       9.05455000       3.71228000       2.55855000       0.10170800       0.10977500       0.37812000
Li       3.14081000       7.85711000       4.70264000      -0.22145300      -0.21333200       0.43238400
Li       9.10053000       7.61396000       3.59587000       0.04803300       0.56162400      -0.17763400
Li       4.34381000       5.86171000       7.86926000      -0.13859000       0.26700500      -0.35824200
Li       9.61437000       0.28228000       5.24325000       0.11113100       0.03507200      -0.38867300
Li       8.53454000      10.61674000       3.90748000       0.29189000       0.26972900       0.06318800
Li       7.92111000       0.18276000       8.38330000      -1.60058500       0.11630700       0.32682800
Li      -0.79256000       3.46877000       2.50954000       0.07623700      -0.12866600       0.07246900
Li       5.99826000      10.90322000      -5.00410000       0.04427100      -0.24809700      -0.13668700
Li      -0.57022000       3.86668000       9.16959000      -0.06717600      -0.01797200      -0.27384800
Li       6.18772000       8.09992000       6.55757000      -0.10225100      -0.08825400       0.69030300
Li       2.97888000       1.92663000       7.10337000       0.30957900       0.09535500       0.41126600
Li       6.74425000       3.45450000       7.59265000       0.30726800      -0.18956400       0.81541400
P       -2.16916000       9.48006000      -2.58880000      -0.27524800      -0.03521200       1.29047800
P        3.80977000       9.49187000      -3.93082000      -1.38471100      -0.01186500      -0.92768600
P        1.19616000       5.35449000       1.05894000       1.94745000      -0.92736800      -0.47946300
P        7.18559000       5.51213000      -0.35694000      -0.09036800      -0.45473300       1.43055400
P        2.45740000       8.71474000       1.65927000      -0.49348000       2.34471400       0.24160800
P        8.49659000       8.75939000       0.29018000      -1.38012300       0.12612600       0.28861700
P        0.22114000       2.13681000       5.69280000      -0.32693200      -0.98843100      -0.57927000
P        6.34228000       2.47071000       4.43230000      -0.41520300      -0.41293300      -1.89675500
P        0.98949000       5.69421000       6.24934000       1.73133200       0.70567000       0.22101500
P        7.19384000       5.83223000       5.00299000      -0.71238100      -0.23956800       0.13660800
P        4.69512000       2.10567000       9.69411000       0.66392400       1.02187200       0.00631200
P       10.42022000       2.08245000       8.47139000       1.27094000      -0.51260800       1.72199300
S        1.74766000       9.44942000      -3.46164000       1.18609400       0.11370600      -0.33269400
S        7.89478000       9.31405000      -4.81173000       0.26379400       0.43454700       0.33557700
S       -1.14648000       7.86499000      -1.89298000       0.51562300      -0.23245700       0.65410800
S        4.78508000       7.85829000      -3.27581000       0.22036100      -0.72860700       0.20233100
S        4.40947000       2.35227000      -0.67981000      -0.29291600      -0.37621800      -0.38289000
S       10.18106000       1.87447000      -1.83996000       0.21630200      -0.10130700      -0.97574500
S        1.45325000       5.52337000      -0.93448000       0.22976800       0.61877600       0.30720700
S        7.28125000       5.96063000      -2.30259000       0.46439400      -0.48959900       0.09803600
S        2.26277000       0.12504000       1.59514000      -0.02024100      -0.39001500       0.47672100
S        4.70416000      11.05368000      -2.93185000      -0.13243100       0.16957100      -0.97795600
S       -0.55991000       5.84480000       1.66357000      -2.67424200       0.38445000       0.80705800
S        5.28544000       5.50588000       0.46738000       0.62954300       0.25463000      -0.63998700
S        1.75420000       3.52272000       1.86991000      -0.25864100       0.84280000      -0.96602900
S        8.21766000       3.76444000       0.40848000      -0.59066000       0.62239900      -1.38753100
S        2.82225000       8.99542000      -0.30493000       0.37169900      -0.02862000      -0.31516200
S       -2.50117000       8.72066000       1.42169000       0.01502600       0.71665900      -0.28469800
S        5.10479000       1.70620000       2.97605000       0.23213800       0.03009800       0.16734500
S       10.80768000       1.48740000       1.51381000       0.60207700       0.68007000       0.42009500
S        2.45660000       6.75638000       2.17352000       0.84053600      -1.64301500       0.58735600
S        8.56951000       6.69387000       0.83367000      -0.32969900       0.04826600       0.42390900
S        0.75796000       9.72927000       1.98472000      -0.25568000      -0.43966300       0.12853500
S        6.45993000       9.28004000      -0.01983000       0.95606100      -0.18100700       0.62263600
S        2.04068000       1.53623000       4.95100000      -0.20759800       0.13366300       0.19149700
S        8.24084000       1.92234000       3.91470000       0.48800100      -0.27499000       0.25010800
S       -0.09924000       4.24293000       5.23805000      -0.96940200      -0.50163600      -0.31465300
S        5.98332000       4.48689000       3.88728000      -0.14002000       0.45780300      -0.52252400
S       -2.67111000       9.54511000       4.78065000       0.26123900      -0.49932400      -0.65405500
S        3.96836000       9.26919000       2.98978000      -0.17317600      -0.26739400      -0.90934000
S       -0.02191000       1.52843000       7.57580000      -0.04434800       0.79753200      -0.08841200
S        5.75079000       2.07360000       6.21336000      -0.53860900      -1.00791700       0.98438600
S        0.16568000       7.38761000       5.44473000       0.09463600      -0.22605000       0.77832300
S        6.50442000       7.67448000       4.39473000       0.54348200      -0.59436100      -0.96031800
S        2.98640000       5.50035000       5.54923000      -0.62098100       0.01447500       0.45476100
S        9.07860000       5.48002000       4.38902000       0.45575000      -0.35162600       0.61773700
S        4.00736000       0.48940000       8.79425000      -0.49330500      -0.52645100       0.31663100
S        9.93750000       0.20146000       7.64367000       0.55079200       0.82975400      -0.10756700
S        1.03699000       5.55518000       8.30544000      -0.45103400       0.21044900      -0.92952800
S        6.65064000       5.60908000       6.99070000       0.70235400       0.96214900      -0.55974200
S       -1.79203000       9.47641000       7.91719000      -0.07736500      -0.12599800      -2.23472800
S        4.26460000       9.50965000       6.23799000      -0.27378300       0.16456200       2.21843500
S        3.93209000       3.78445000       8.70747000      -0.17147800      -1.12720700       0.56302800
S        9.29238000       3.65708000       7.99622000      -0.16515800       0.86461500      -1.32833000
S        0.30940000       2.47204000      10.90722000      -0.17455500      -0.77465000      -0.48399500
S        6.78553000       1.99120000       9.66089000       0.18380600       0.13449300       0.07150300
83
Lattice="12.049483852 0.014100787 -2.826267705 -3.571931226 11.145541253 -3.653909468 0.023363077 0.084157872 12.436688049" Properties=species:S:1:pos:R:3:forces:R:3 energy=-358.2049143 pbc="T T T"
Li       9.67704000       6.90935000      -2.49314000       0.21040600      -0.19708000      -0.15582200
Li       2.45030000       3.57847000      -0.82162000       0.03920800      -0.25996000       0.13459900
Li       6.02569000       9.17990000      -2.13622000       0.40481800      -0.14079600       0.13859000
Li       0.74610000       9.39581000      -0.87127000      -0.35877300      -0.12027900      -0.03495300
Li      -0.15390000      10.95686000      -4.22300000      -0.35393300      -0.39118900       0.06386500
Li       0.94338000       0.17616000       3.67625000      -0.02930100      -0.27978200      -0.00850600
Li       3.86777000       6.62189000      -0.98182000      -0.17617900       0.24567300      -0.11388800
Li       0.09334000       7.77643000       8.42042000      -0.07917800       0.05612300       0.11675400
Li       3.22342000      11.05157000      -1.35435000       0.13648600       0.25174700      -0.17211500
Li       8.20371000       3.45352000      -1.81715000       0.40800900       0.08558800      -0.15700300
Li       6.60143000       1.23107000      -0.59954000      -0.00070200       0.15314300       0.11348000
Li      -0.50761000       7.80823000       3.28414000      -0.05747400       0.32639100       0.07524400
Li       5.62930000       7.61021000       2.24077000      -0.05726100      -0.08726700      -0.24637400
Li       3.03207000       3.69649000       3.98847000       0.28365200       0.31407200      -0.49511200
Li       8.99696000       3.36474000       2.58240000       0.11824300      -0.01289100       0.30621000
Li       2.45655000       7.71033000       4.96104000       0.66060700       0.55806100      -0.24477800
Li      -2.39177000       7.66270000       6.21606000      -0.42617900      -0.18118300       0.13956100
Li       4.29343000       5.29887000       7.60535000       0.14234600      -0.20260000       0.47451600
Li       5.21791000      11.05672000       2.02560000      -0.13045300       0.13163500      -0.38733400
Li      11.71056000       0.14660000       6.58530000       0.27281300       0.16025000       0.07286200
Li       6.13178000       0.27466000       7.52583000      -0.24109700      -0.06204400       0.72672100
Li      -0.40690000       3.42287000       2.44436000      -0.03972300       0.11137900      -0.09161500
Li       5.86177000      11.13935000      -5.38831000       0.46841000      -0.14417300      -0.91758400
Li      -0.81366000       4.18537000       8.84070000      -0.16707500      -0.19219100      -0.21475800
Li       6.30105000       7.94906000       6.79220000       0.16457500      -0.07620700      -0.18549800
Li       2.60673000       1.63542000       7.45099000      -0.02445000       0.01724100       0.54187500
Li       8.22821000       2.90780000       7.20299000      -0.66034700       0.39718100      -0.07427400
P       -2.30444000       9.26197000      -2.58373000       1.94830900       0.75209100       0.87738600
P        3.79596000       9.14144000      -4.28667000      -0.67602500      -0.14024700       1.88689700
P        1.23624000       5.64115000       1.09048000      -0.97468300      -0.10512100       0.51233400
P        7.19432000       5.49057000      -0.12589000      -0.50165600      -0.07482100       0.79144100
P        2.36343000       8.86915000       1.76584000       0.11556300      -0.14988800       1.45566000
P        8.30671000       8.83666000       0.30141000      -0.15447900      -0.07632200       0.43736500
P        0.38769000       2.37383000       5.52185000      -0.31921100       0.52683000      -0.61628800
P        6.28861000       2.16486000       4.22386000       0.48336900       0.32774100      -1.19033700
P        1.11270000       5.77775000       6.22971000      -0.30122700      -1.60414000      -0.03149100
P        7.45043000       5.61586000       4.99083000      -1.44022000       0.04895300      -1.11789200
P        4.47675000       1.85600000       9.94705000      -0.19261400       1.07125100       1.15207500
P       10.82178000       2.59751000       8.45255000      -0.28795100      -1.45685700       0.38525100
S        1.84938000       9.49393000      -3.70566000       0.38911100      -0.36739400       0.24251200
S        7.88690000       9.59144000      -4.77213000      -1.02022000      -0.26554900       0.07596700
S       -1.25573000       7.64776000      -1.82037000      -0.33797500      -0.34812300      -0.22221000
S        4.51258000       7.28421000      -3.36625000       0.11408800       1.71391000      -0.35978600
S        4.38319000       1.82279000      -0.37387000      -0.50913500       0.69558600      -0.82995800
S       10.56618000       2.02130000      -1.99695000      -0.24190900       0.46904400       0.09030000
S        1.43548000       5.87295000      -0.84654000       0.31124500       0.48153800      -0.70514500
S        7.42110000       5.78833000      -2.07787000      -0.25134100      -0.25977900      -0.27144700
S       -1.10638000      10.82194000      -1.68176000      -0.40430500      -0.25992200      -0.83943600
S        4.78899000      10.93881000      -3.44283000      -0.44514500      -1.39149200       0.62284800
S       -0.61785000       5.95062000       1.90362000      -0.55955900      -0.29888400      -0.58375100
S        5.27460000       5.63237000       0.66013000       0.80690800       0.52251000      -0.36721100
S        1.88714000       3.84991000       1.66527000       0.47664900      -0.86841700       0.37390700
S        7.91390000       3.70957000       0.54944000       0.22045400      -0.25248300      -0.54312600
S        3.21158000       9.10747000       0.06175000       0.72716700      -0.18719600      -2.52148600
S        8.67556000       8.93111000      -1.65520000       0.09880000       0.86630500      -0.37350800
S        5.11315000       1.55873000       2.67897000      -0.29614700       0.05781700       0.67345600
S       11.12919000       1.66381000       1.31629000      -0.14901200       0.02125800       0.11259300
S        2.43866000       6.83199000       2.31899000       1.09734600       0.11477200       0.58771300
S        8.65450000       6.82347000       0.86650000      -0.51003100      -0.45183800       0.34221900
S        0.54353000       9.54241000       1.85376000      -1.08918000       0.52816800       0.12936700
S        6.40376000       9.46716000       0.60870000      -0.12924500      -0.33004300      -0.22758200
S        2.31382000       1.83140000       5.09622000      -0.36346900      -0.26203800      -0.09537000
S        8.19083000       1.35213000       3.74656000      -0.55741900       0.59571400       0.63927100
S       -0.13795000       4.48503000       5.04585000       0.67682600      -0.73470800       0.37655100
S        6.13450000       4.33599000       3.72854000       0.47005200      -0.51050300       0.45663800
S       -2.46552000       9.58461000       4.50719000       0.45040900       0.17203300      -0.18676600
S        3.70412000       9.47790000       3.23675000      -0.15612500      -0.37329200      -0.09533900
S        0.03140000       2.06221000       7.42580000      -0.15706000      -0.09437200       0.76263900
S        5.70616000       2.02133000       6.13739000       0.25873100       0.37192300      -0.06750100
S        0.23542000       7.46791000       5.63911000      -0.29186700       1.16466200       0.01795400
S        6.95431000       7.45610000       4.25083000       0.06196200       0.17244500       0.24107400
S        3.03947000       5.50587000       5.66587000       0.23112300       0.23078500      -0.79476500
S        9.30021000       5.17975000       4.28527000       0.52852100      -0.17702200       0.61462200
S        0.34519000      11.16776000       5.59526000       0.12097400       0.69161000      -0.56810800
S        9.59918000       1.08375000       7.51575000       0.34840700      -0.21822600       0.40042900
S        1.06712000       5.41507000       8.16992000      -0.15878000       0.58849300       0.57802400
S        6.78081000       5.52417000       6.89193000       0.71313100      -0.32803700       0.26389100
S       -1.94758000       9.44661000       7.83617000      -0.01682800      -0.00186100      -0.03976000
S        4.17328000       9.23349000       6.20531000       0.33625600      -0.03354500      -0.31150700
S        3.26246000       3.47170000       9.29237000       0.92852500      -0.89037800      -0.53387500
S       10.00688000       4.36966000       8.07214000      -0.37604900       0.50359400      -0.13917000
S        0.62402000       2.33227000      10.55035000      -0.15655100      -0.04532400      -0.00523200
S        6.45991000       2.24477000       9.60396000       0.59339000      -0.58689000      -0.86836000
83
Lattice="12.049483852 0.014100787 -2.826267705 -3.571931226 11.145541253 -3.653909468 0.023363077 0.084157872 12.436688049" Properties=species:S:1:pos:R:3:forces:R:3 energy=-357.88505907 pbc="T T T"
Li      -1.28129000       7.72571000       0.53972000      -0.34030400       0.06322200       0.45344800
Li       3.53914000       4.01690000      -0.89778000      -0.31084500       0.12883800      -0.01632100
Li      -1.25598000       4.94802000       9.24440000      -0.11805000       0.44118100      -0.35086400
Li       0.93586000      10.62567000      -1.62796000      -0.00911600       0.25582700       0.77099700
Li       2.53987000       0.45071000      -0.28905000      -0.01695100       0.27005900      -0.46919300
Li      -2.18402000      11.14931000       0.58112000      -0.28807000      -0.35878200       0.10266000
Li       6.64896000       7.63126000      -3.06310000       0.06030000       0.51290100      -0.24093100
Li       2.00034000       7.59919000      -1.70021000       0.20274200       0.58506500      -0.26493200
Li       5.61998000       9.81613000      -1.13138000      -0.17489500       0.15037400      -0.12413800
Li       9.83730000       4.41537000      -2.35441000      -0.19765100      -0.38271200      -0.30089800
Li       7.15722000       1.63392000      -0.61215000      -0.18193500      -0.06903600      -0.14852400
Li      -0.56213000       7.63908000       3.59053000      -0.34083000      -0.17260800      -0.32269200
Li       6.11882000       7.05631000       1.90023000      -0.26091000      -0.53471300       0.00982400
Li       3.55206000       3.58528000       3.52162000      -0.30902300       0.46861500       0.18409200
Li       8.65736000       4.21856000       2.71596000       0.01260600       0.13413300       0.11732800
Li       1.82763000       9.49695000       5.44180000      -0.04317700       0.21761900      -0.32042600
Li       8.28134000       9.28219000       4.50663000      -0.83646400      -0.03210900       0.01247300
Li       4.00916000       3.55547000       6.46793000      -0.08817600       0.03762900       0.38993400
Li       8.35643000       0.86524000       6.12326000      -0.03607500       0.05766000       0.08650300
Li       1.24842000       0.77791000       8.76208000      -0.27983800      -0.32818200       0.15184200
Li       4.03430000       0.48507000       6.68317000       0.12869200      -0.32420200       0.18120100
Li       0.53443000       2.08910000       2.33918000      -0.22804700      -0.26214800      -0.29541300
Li       5.96965000      10.60337000      -5.37030000       0.21564800       0.30054300      -0.33238600
Li       0.34358000       7.96861000       7.85130000      -0.36368200       0.70814900       0.99804700
Li       4.65097000       7.17422000       6.98202000       0.22404900      -0.69742700      -0.13630400
Li       1.47718000       3.47337000       9.25701000      -0.23573200       0.39460900       0.10607900
Li       6.79457000       3.71512000       7.90180000       0.33453500      -0.77548400       0.41002200
P       -2.10090000       9.23776000      -2.52124000      -0.38510600       0.04531100      -0.88786300
P        3.59455000       9.23578000      -4.00186000       0.63282600       0.78855900       0.30359200